# vtk DataFile Version 3.0
d-2__ created by libgimli-v1.4.0
ASCII
DATASET UNSTRUCTURED_GRID
POINTS 3412 double
-40	0	0
-40	-640	0
1640	-640	0
1640	0	0
-6440	0	0
-6440	-7040	0
8040	0	0
8040	-7040	0
0	0	0
10	0	0
20	0	0
30	0	0
40	0	0
50	0	0
60	0	0
70	0	0
80	0	0
90	0	0
100	0	0
110	0	0
120	0	0
130	0	0
140	0	0
150	0	0
160	0	0
170	0	0
180	0	0
190	0	0
200	0	0
210	0	0
220	0	0
230	0	0
240	0	0
250	0	0
260	0	0
270	0	0
280	0	0
290	0	0
300	0	0
310	0	0
320	0	0
330	0	0
340	0	0
350	0	0
360	0	0
370	0	0
380	0	0
390	0	0
400	0	0
410	0	0
420	0	0
430	0	0
440	0	0
450	0	0
460	0	0
470	0	0
480	0	0
490	0	0
500	0	0
510	0	0
520	0	0
530	0	0
540	0	0
550	0	0
560	0	0
570	0	0
580	0	0
590	0	0
600	0	0
610	0	0
620	0	0
630	0	0
640	0	0
650	0	0
660	0	0
670	0	0
680	0	0
690	0	0
700	0	0
710	0	0
720	0	0
730	0	0
740	0	0
750	0	0
760	0	0
770	0	0
780	0	0
790	0	0
800	0	0
810	0	0
820	0	0
830	0	0
840	0	0
850	0	0
860	0	0
870	0	0
880	0	0
890	0	0
900	0	0
910	0	0
920	0	0
930	0	0
940	0	0
950	0	0
960	0	0
970	0	0
980	0	0
990	0	0
1000	0	0
1010	0	0
1020	0	0
1030	0	0
1040	0	0
1050	0	0
1060	0	0
1070	0	0
1080	0	0
1090	0	0
1100	0	0
1110	0	0
1120	0	0
1130	0	0
1140	0	0
1150	0	0
1160	0	0
1170	0	0
1180	0	0
1190	0	0
1200	0	0
1210	0	0
1220	0	0
1230	0	0
1240	0	0
1250	0	0
1260	0	0
1270	0	0
1280	0	0
1290	0	0
1300	0	0
1310	0	0
1320	0	0
1330	0	0
1340	0	0
1350	0	0
1360	0	0
1370	0	0
1380	0	0
1390	0	0
1400	0	0
1410	0	0
1420	0	0
1430	0	0
1440	0	0
1450	0	0
1460	0	0
1470	0	0
1480	0	0
1490	0	0
1500	0	0
1510	0	0
1520	0	0
1530	0	0
1540	0	0
1550	0	0
1560	0	0
1570	0	0
1580	0	0
1590	0	0
1600	0	0
888.63700093691	-15.798501703769	0
62.341382324393	-25.089872012723	0
115.70392363039	-14.431132098757	0
246.04677432111	-14.503199460447	0
375.52947509201	-15.954172746663	0
514.77784367029	-13.151065908838	0
926.28436005634	-27.791098476502	0
1195.5394926884	-13.877340848781	0
1324.5791657958	-12.831497226043	0
1434.0782111829	-13.59277451602	0
1640	-256	0
876.94066854626	-11.804873543131	0
913.3490460858	-35.88339063673	0
960.52398568277	-30.581213539381	0
811.85385680124	-19.115769028362	0
781.73542422191	-28.815517528558	0
865.31986538982	-9.7859816657191	0
-40	-256	0
14.331432899087	-9.2185308463071	0
174.46216518716	-17.349896704969	0
144.0083855636	-11.924110475536	0
126.04598830162	-8.0737253488994	0
101.65969588689	-10.823817214156	0
231.72774540272	-10.691586648341	0
304.47999784459	-16.826497874353	0
274.38581132196	-11.618337579275	0
256.28013748186	-8.0608336288436	0
361.33337464931	-11.217688494688	0
445.00798556384	-11.532487108101	0
406.08574658016	-15.294445819238	0
386.26803387953	-9.348271416479	0
501.71174414545	-9.8911445919691	0
624.49714592685	-14.109354859915	0
564.26683700324	-11.869260671907	0
536.01626147089	-11.741906347847	0
525.32838446497	-8.7055660248187	0
1076.4527064636	-14.08057927356	0
1014.8793881417	-12.608683215197	0
986.0905372187	-12.614032750811	0
965.17168592571	-9.3366800917222	0
946.43589494404	-11.526493193829	0
1255.1829512351	-16.876680638718	0
1224.2093014636	-11.557875565638	0
1206.0313273576	-7.8366292565126	0
1181.4539901558	-10.133269623315	0
1133.8036222614	-12.061843364051	0
1374.5076292481	-12.935880774457	0
1345.6956041119	-11.686602916361	0
1335.1467749538	-8.517224766002	0
1311.679914956	-9.6643742846782	0
1484.4604888654	-13.177485379549	0
1455.6023611623	-12.582533721125	0
1444.9469322502	-9.1345123054181	0
1421.2552344689	-9.943302111818	0
1563.0389306361	-21.745859861518	0
1573.3906175039	-11.363714401664	0
1552.5577076963	-11.672641613232	0
1535.4614704566	-8.3765808839498	0
958.13259748098	-17.859658920956	0
714.2594786442	-7.7513113704428	0
654.88754847083	-24.618382695174	0
853.21347305959	-13.618827487145	0
843.45540776527	-7.8366089493987	0
693.88810400818	-15.652176733487	0
782.00071231873	-11.754195161546	0
724.10837204311	-11.54453656423	0
705.86802134039	-8.4081659656571	0
43.846902518678	-11.305498729258	0
75.841694112403	-13.35761255393	0
62.579118076683	-10.458348134414	0
53.954386380662	-7.6790853954133	0
206.21601099341	-11.963084969442	0
186.49436877816	-9.2020714299805	0
163.15340301555	-8.8992767572519	0
134.09789017838	-7.6526641150295	0
93.427652642544	-6.96113221032	0
223.45109601855	-6.7137810062026	0
293.27646209404	-8.6248095777079	0
335.9106270406	-12.011239844419	0
316.40506030558	-9.0407851180567	0
264.34035931485	-7.5741121212735	0
353.23384361418	-6.9122727777085	0
434.76859914107	-6.7279529091838	0
476.26075217049	-11.802117773496	0
456.07012931603	-8.1467956129413	0
419.55258766995	-10.804693297582	0
394.69855512565	-9.2392129298129	0
493.5620463147	-6.3813561707231	0
825.19480864954	-11.889302538941	0
955.94896706364	-7.7459060031244	0
637.26820666408	-9.5924135228185	0
611.04039497108	-10.217541623232	0
586.18830026754	-11.701708843044	0
575.22598063461	-8.4826917931751	0
554.0076128486	-7.7631255071029	0
1105.7220366451	-11.135744035502	0
1086.7230643437	-7.9069255118011	0
1061.940898684	-10.183978770415	0
1037.0052434105	-11.387182541945	0
1025.7318758758	-8.6374108159715	0
1004.4123757089	-8.0993206531714	0
974.70317435173	-8.7201902939762	0
935.71413043858	-8.7978851128365	0
1286.8454456969	-11.342255358385	0
1266.9325273977	-8.9195077968028	0
1243.434072038	-8.660001060223	0
1214.1449612808	-7.4407652226484	0
1173.334732459	-6.4069632477792	0
1156.3815086192	-11.456568560077	0
1145.1053744562	-8.5552836450154	0
1123.8975097656	-7.1725759386074	0
1396.8905952108	-11.447244844499	0
1385.6088162032	-8.7934591390037	0
1363.9486866365	-8.1971969716055	0
1303.6050892744	-6.1879409430719	0
1505.9127269484	-12.072765265248	0
1495.2177525446	-8.9614450383647	0
1473.9843609491	-8.5291707593051	0
1413.3882344814	-6.2974561350172	0
1545.2511618284	-29.019850928085	0
1525.2293043318	-9.044454815939	0
806.61198893359	-8.5147939111131	0
1016.5350136814	-32.314710697617	0
948.45666116355	-26.302562772746	0
1040.5458776105	-29.848476609351	0
903.94178015838	-8.4602507085203	0
674.57525015861	-9.2303471701526	0
34.042676905957	-7.7458923986425	0
195.12340832723	-8.3034231373403	0
154.74612094504	-7.9931960968594	0
130.45581453423	-18.228710918506	0
85.793565285305	-7.3818286587882	0
101.17073536644	-26.92874216445	0
215.86958285005	-6.9231425916001	0
231.28917836043	-26.939313575129	0
284.92980107246	-7.7503102169594	0
324.9783545495	-8.2344704187789	0
261.09691491606	-18.102029036537	0
345.66460507492	-7.044021540967	0
360.12003610499	-28.135790378176	0
427.20016390767	-6.6023190423772	0
464.62136285874	-8.1836880909988	0
391.22967034954	-21.54391223639	0
485.99509887227	-6.6904868364464	0
501.98450029423	-24.250093297507	0
683.67020419185	-8.4406977768116	0
645.28321016907	-6.7553558968531	0
800	-640	0
603.11282303886	-6.5408475779518	0
545.97262298973	-7.7271224349396	0
1094.9376373131	-7.4014838215893	0
1053.6173901224	-6.3959886758169	0
996.28839838675	-8.0910752600658	0
914.86382905536	-21.362712447199	0
925.31372244501	-12.526694169622	0
835.45289929194	-7.5450768400141	0
1275.549755386	-7.992403807941	0
1234.943056762	-7.7675060340725	0
1210.5194951407	-17.663421353073	0
1165.8232756773	-6.6171844567957	0
1180.4661827275	-25.039313692496	0
1115.8848315376	-7.0046001270529	0
1355.8139403341	-7.9806054737295	0
1296.1390668878	-6.4621308005395	0
1311.7581808099	-24.046340456756	0
1465.8418480112	-8.4279346383653	0
1405.9947569535	-6.5420736661963	0
1420.3712365002	-24.653947089296	0
1563.7986932512	-8.9523497497135	0
1515.8823986761	-7.9717329071754	0
1543.96601087	-7.0155810745444	0
679.77749080546	-17.121078477683	0
796.37598840901	-15.483695977471	0
973.32729619189	-41.775880894947	0
711.03376590517	-18.433049994759	0
756.95417741744	-18.604768479999	0
-40	-128	0
192.96968911265	-20.345983988554	0
156.59565080417	-19.12172208698	0
89.729531192787	-16.575296314502	0
219.74577343737	-15.91025335837	0
287.03233957544	-18.410896139756	0
322.60647655401	-20.07404566999	0
349.2051258322	-16.283086824389	0
422.51579331115	-27.34972138892	0
460.93897963643	-20.795285639599	0
490.29621384996	-15.092060504009	0
653.30344815962	-9.4228414019053	0
595.63922271608	-6.7756356573331	0
936.7414109914	-19.943532750923	0
549.97132600889	-18.843076754202	0
1092.2958153616	-17.719832541167	0
1046.1330260376	-6.5853140747886	0
1061.6638944529	-25.180467947834	0
1001.0817694949	-19.589869231389	0
938.25222432994	-32.706784226427	0
1274.0682901757	-19.622070034149	0
1237.1324252692	-18.512006027241	0
1169.4096589011	-15.03550157352	0
1119.8288922109	-16.480978294003	0
1359.43961403	-19.870757676912	0
1300.3397273613	-14.696466940331	0
1469.6250976224	-20.973021214206	0
1409.6983627302	-14.856645426557	0
1541.8012595806	-15.050241489949	0
1518.2657502255	-18.738761097717	0
625.39907086309	-31.498961676576	0
898.55707456372	-16.548965117784	0
764.35279819564	-8.7907376196287	0
80.520696320125	-33.991138188689	0
210.03666532149	-32.20996450266	0
339.03607457537	-32.341083397088	0
431.80038934143	-15.403444283971	0
482.49950289748	-31.200954374666	0
814.73527232176	-7.9075995408386	0
598.9351441664	-15.392735960455	0
1050.1401658811	-14.951336303799	0
609.75858288216	-24.672153601585	0
1159.0161187671	-30.230228307185	0
1292.1211799745	-30.338309831524	0
1400.2755559607	-30.056631109633	0
1594.3822026425	-44.377913009492	0
929.22349740677	-44.306828620202	0
565.2574692327	-28.446289733252	0
441.9593448736	-29.223830713599	0
645.75457274602	-14.487030418739	0
972.34093328999	-21.568745877829	0
770.29156420874	-18.294440652246	0
526.01525030687	-18.361377999875	0
1335.5173758121	-17.919514966741	0
1445.0607061774	-19.409180783497	0
1584.8580457904	-11.706996563513	0
838.60936668126	-17.957663466056	0
755.27521078637	-7.8878594380203	0
24.807800020428	-9.1084915274724	0
31.500394474155	-18.350218613765	0
637.95794754832	-21.722730209915	0
575.75940116473	-18.548403070867	0
1026.9201243924	-18.985953000467	0
1145.3557779189	-19.014730336129	0
1386.6418364693	-19.442466942756	0
1495.7167032047	-19.530961551463	0
669.95832401689	-18.930868634302	0
734.6979641723	-8.3429894945586	0
988.64188423777	-29.926819742032	0
[...]
CELL_DATA 6412
SCALARS Marker double 1
LOOKUP_TABLE default
-1 -1 -1 -1 0 0 0 0 1 1 1 1 -1 -1 -1 -1 2 2 2 2 3 3 3 3 4 4 4 4 5 5 5 5 6 6 6 6 7 7 7 7 8 8 8 8 9 9 9 9 10 10 10 10 11 11 11 11 12 12 12 12 13 13 13 13 14 14 14 14 15 15 15 15 16 16 16 16 17 17 17 17 18 18 18 18 19 19 19 19 20 20 20 20 21 21 21 21 22 22 22 22 23 23 23 23 24 24 24 24 25 25 25 25 26 26 26 26 27 27 27 27 28 28 28 28 29 29 29 29 30 30 30 30 31 31 31 31 32 32 32 32 33 33 33 33 34 34 34 34 35 35 35 35 36 36 36 36 37 37 37 37 38 38 38 38 39 39 39 39 40 40 40 40 41 41 41 41 42 42 42 42 43 43 43 43 44 44 44 44 45 45 45 45 46 46 46 46 47 47 47 47 48 48 48 48 49 49 49 49 50 50 50 50 51 51 51 51 52 52 52 52 53 53 53 53 54 54 54 54 55 55 55 55 56 56 56 56 57 57 57 57 58 58 58 58 59 59 59 59 60 60 60 60 61 61 61 61 62 62 62 62 63 63 63 63 64 64 64 64 65 65 65 65 66 66 66 66 67 67 67 67 68 68 68 68 69 69 69 69 70 70 70 70 71 71 71 71 72 72 72 72 73 73 73 73 74 74 74 74 -1 -1 -1 -1 75 75 75 75 76 76 76 76 77 77 77 77 78 78 78 78 79 79 79 79 80 80 80 80 81 81 81 81 82 82 82 82 83 83 83 83 84 84 84 84 85 85 85 85 86 86 86 86 87 87 87 87 88 88 88 88 89 89 89 89 90 90 90 90 91 91 91 91 92 92 92 92 93 93 93 93 94 94 94 94 95 95 95 95 96 96 96 96 97 97 97 97 98 98 98 98 99 99 99 99 100 100 100 100 101 101 101 101 102 102 102 102 103 103 103 103 104 104 104 104 105 105 105 105 106 106 106 106 107 107 107 107 108 108 108 108 109 109 109 109 110 110 110 110 111 111 111 111 112 112 112 112 113 113 113 113 114 114 114 114 115 115 115 115 116 116 116 116 117 117 117 117 118 118 118 118 119 119 119 119 120 120 120 120 121 121 121 121 122 122 122 122 123 123 123 123 124 124 124 124 125 125 125 125 126 126 126 126 127 127 127 127 128 128 128 128 129 129 129 129 130 130 130 130 131 131 131 131 132 132 132 132 133 133 133 133 134 134 134 134 135 135 135 135 136 136 136 136 137 137 137 137 138 138 138 138 139 139 139 139 140 140 140 140 141 141 141 141 142 142 142 142 143 143 143 143 144 144 144 144 145 145 145 145 146 146 146 146 147 147 147 147 148 148 148 148 149 149 149 149 150 150 150 150 151 151 151 151 152 152 152 152 153 153 153 153 154 154 154 154 155 155 155 155 156 156 156 156 157 157 157 157 158 158 158 158 159 159 159 159 160 160 160 160 -1 -1 -1 -1 161 161 161 161 162 162 162 162 163 163 163 163 164 164 164 164 165 165 165 165 166 166 166 166 167 167 167 167 168 168 168 168 169 169 169 169 170 170 170 170 171 171 171 171 172 172 172 172 173 173 173 173 174 174 174 174 175 175 175 175 -1 -1 -1 -1 176 176 176 176 177 177 177 177 178 178 178 178 179 179 179 179 180 180 180 180 181 181 181 181 182 182 182 182 183 183 183 183 184 184 184 184 185 185 185 185 186 186 186 186 187 187 187 187 188 188 188 188 189 189 189 189 190 190 190 190 191 191 191 191 192 192 192 192 193 193 193 193 194 194 194 194 195 195 195 195 196 196 196 196 197 197 197 197 198 198 198 198 199 199 199 199 200 200 200 200 201 201 201 201 202 202 202 202 203 203 203 203 204 204 204 204 205 205 205 205 206 206 206 206 207 207 207 207 208 208 208 208 209 209 209 209 210 210 210 210 211 211 211 211 212 212 212 212 213 213 213 213 214 214 214 214 215 215 215 215 216 216 216 216 217 217 217 217 218 218 218 218 219 219 219 219 220 220 220 220 221 221 221 221 222 222 222 222 223 223 223 223 224 224 224 224 225 225 225 225 226 226 226 226 227 227 227 227 228 228 228 228 229 229 229 229 230 230 230 230 231 231 231 231 232 232 232 232 233 233 233 233 234 234 234 234 235 235 235 235 236 236 236 236 237 237 237 237 238 238 238 238 -1 -1 -1 -1 -1 -1 -1 -1 239 239 239 239 240 240 240 240 241 241 241 241 242 242 242 242 243 243 243 243 244 244 244 244 245 245 245 245 246 246 246 246 247 247 247 247 248 248 248 248 249 249 249 249 250 250 250 250 251 251 251 251 252 252 252 252 253 253 253 253 254 254 254 254 255 255 255 255 256 256 256 256 257 257 257 257 258 258 258 258 259 259 259 259 260 260 260 260 261 261 261 261 262 262 262 262 263 263 263 263 -1 -1 -1 -1 264 264 264 264 265 265 265 265 -1 -1 -1 -1 266 266 266 266 267 267 267 267 268 268 268 268 269 269 269 269 270 270 270 270 271 271 271 271 272 272 272 272 273 273 273 273 274 274 274 274 275 275 275 275 276 276 276 276 277 277 277 277 278 278 278 278 279 279 279 279 280 280 280 280 281 281 281 281 282 282 282 282 283 283 283 283 284 284 284 284 285 285 285 285 286 286 286 286 287 287 287 287 288 288 288 288 289 289 289 289 290 290 290 290 291 291 291 291 292 292 292 292 293 293 293 293 294 294 294 294 295 295 295 295 296 296 296 296 297 297 297 297 298 298 298 298 299 299 299 299 300 300 300 300 301 301 301 301 302 302 302 302 303 303 303 303 304 304 304 304 305 305 305 305 306 306 306 306 307 307 307 307 308 308 308 308 309 309 309 309 310 310 310 310 311 311 311 311 312 312 312 312 -1 -1 -1 -1 313 313 313 313 314 314 314 314 315 315 315 315 316 316 316 316 317 317 317 317 318 318 318 318 319 319 319 319 320 320 320 320 321 321 321 321 322 322 322 322 323 323 323 323 324 324 324 324 325 325 325 325 326 326 326 326 327 327 327 327 328 328 328 328 329 329 329 329 330 330 330 330 331 331 331 331 332 332 332 332 333 333 333 333 334 334 334 334 335 335 335 335 336 336 336 336 337 337 337 337 338 338 338 338 339 339 339 339 340 340 340 340 341 341 341 341 342 342 342 342 343 343 343 343 344 344 344 344 345 345 345 345 346 346 346 346 347 347 347 347 348 348 348 348 349 349 349 349 350 350 350 350 351 351 351 351 352 352 352 352 353 353 353 353 354 354 354 354 355 355 355 355 356 356 356 356 357 357 357 357 358 358 358 358 359 359 359 359 360 360 360 360 361 361 361 361 362 362 362 362 363 363 363 363 364 364 364 364 365 365 365 365 366 366 366 366 367 367 367 367 368 368 368 368 369 369 369 369 370 370 370 370 371 371 371 371 372 372 372 372 373 373 373 373 374 374 374 374 375 375 375 375 376 376 376 376 377 377 377 377 378 378 378 378 379 379 379 379 380 380 380 380 381 381 381 381 382 382 382 382 383 383 383 383 384 384 384 384 385 385 385 385 386 386 386 386 387 387 387 387 388 388 388 388 389 389 389 389 390 390 390 390 391 391 391 391 392 392 392 392 393 393 393 393 394 394 394 394 395 395 395 395 396 396 396 396 397 397 397 397 398 398 398 398 399 399 399 399 400 400 400 400 401 401 401 401 402 402 402 402 403 403 403 403 404 404 404 404 405 405 405 405 406 406 406 406 407 407 407 407 408 408 408 408 409 409 409 409 410 410 410 410 411 411 411 411 412 412 412 412 413 413 413 413 414 414 414 414 415 415 415 415 416 416 416 416 417 417 417 417 418 418 418 418 419 419 419 419 420 420 420 420 421 421 421 421 422 422 422 422 423 423 423 423 424 424 424 424 425 425 425 425 426 426 426 426 427 427 427 427 428 428 428 428 429 429 429 429 430 430 430 430 431 431 431 431 432 432 432 432 433 433 433 433 434 434 434 434 435 435 435 435 436 436 436 436 437 437 437 437 438 438 438 438 439 439 439 439 440 440 440 440 441 441 441 441 442 442 442 442 443 443 443 443 444 444 444 444 445 445 445 445 446 446 446 446 447 447 447 447 448 448 448 448 449 449 449 449 450 450 450 450 451 451 451 451 452 452 452 452 453 453 453 453 454 454 454 454 455 455 455 455 456 456 456 456 457 457 457 457 458 458 458 458 459 459 459 459 460 460 460 460 461 461 461 461 462 462 462 462 463 463 463 463 464 464 464 464 465 465 465 465 466 466 466 466 467 467 467 467 468 468 468 468 469 469 469 469 470 470 470 470 471 471 471 471 472 472 472 472 473 473 473 473 474 474 474 474 475 475 475 475 476 476 476 476 477 477 477 477 478 478 478 478 479 479 479 479 480 480 480 480 481 481 481 481 482 482 482 482 483 483 483 483 484 484 484 484 485 485 485 485 486 486 486 486 487 487 487 487 488 488 488 488 489 489 489 489 490 490 490 490 491 491 491 491 492 492 492 492 493 493 493 493 494 494 494 494 495 495 495 495 496 496 496 496 497 497 497 497 498 498 498 498 499 499 499 499 500 500 500 500 501 501 501 501 502 502 502 502 503 503 503 503 504 504 504 504 505 505 505 505 506 506 506 506 507 507 507 507 508 508 508 508 509 509 509 509 510 510 510 510 511 511 511 511 512 512 512 512 513 513 513 513 514 514 514 514 515 515 515 515 516 516 516 516 517 517 517 517 518 518 518 518 519 519 519 519 520 520 520 520 521 521 521 521 522 522 522 522 523 523 523 523 524 524 524 524 525 525 525 525 526 526 526 526 527 527 527 527 528 528 528 528 529 529 529 529 530 530 530 530 531 531 531 531 532 532 532 532 533 533 533 533 534 534 534 534 535 535 535 535 536 536 536 536 537 537 537 537 538 538 538 538 539 539 539 539 540 540 540 540 541 541 541 541 542 542 542 542 543 543 543 543 544 544 544 544 545 545 545 545 546 546 546 546 547 547 547 547 548 548 548 548 549 549 549 549 550 550 550 550 551 551 551 551 552 552 552 552 553 553 553 553 554 554 554 554 555 555 555 555 556 556 556 556 557 557 557 557 558 558 558 558 559 559 559 559 560 560 560 560 561 561 561 561 562 562 562 562 563 563 563 563 564 564 564 564 565 565 565 565 566 566 566 566 567 567 567 567 568 568 568 568 569 569 569 569 570 570 570 570 571 571 571 571 572 572 572 572 573 573 573 573 574 574 574 574 575 575 575 575 576 576 576 576 577 577 577 577 578 578 578 578 579 579 579 579 580 580 580 580 581 581 581 581 582 582 582 582 583 583 583 583 584 584 584 584 585 585 585 585 586 586 586 586 587 587 587 587 588 588 588 588 589 589 589 589 590 590 590 590 591 591 591 591 592 592 592 592 593 593 593 593 594 594 594 594 595 595 595 595 596 596 596 596 597 597 597 597 598 598 598 598 599 599 599 599 600 600 600 600 601 601 601 601 602 602 602 602 603 603 603 603 604 604 604 604 605 605 605 605 606 606 606 606 607 607 607 607 608 608 608 608 609 609 609 609 610 610 610 610 611 611 611 611 612 612 612 612 613 613 613 613 614 614 614 614 615 615 615 615 616 616 616 616 617 617 617 617 618 618 618 618 619 619 619 619 620 620 620 620 621 621 621 621 -1 -1 -1 -1 622 622 622 622 623 623 623 623 624 624 624 624 625 625 625 625 626 626 626 626 627 627 627 627 628 628 628 628 629 629 629 629 630 630 630 630 631 631 631 631 632 632 632 632 633 633 633 633 634 634 634 634 635 635 635 635 636 636 636 636 637 637 637 637 638 638 638 638 639 639 639 639 640 640 640 640 641 641 641 641 642 642 642 642 643 643 643 643 644 644 644 644 645 645 645 645 646 646 646 646 647 647 647 647 648 648 648 648 649 649 649 649 650 650 650 650 651 651 651 651 652 652 652 652 653 653 653 653 654 654 654 654 655 655 655 655 656 656 656 656 657 657 657 657 658 658 658 658 659 659 659 659 660 660 660 660 661 661 661 661 662 662 662 662 663 663 663 663 664 664 664 664 665 665 665 665 666 666 666 666 667 667 667 667 668 668 668 668 669 669 669 669 670 670 670 670 671 671 671 671 672 672 672 672 673 673 673 673 674 674 674 674 675 675 675 675 676 676 676 676 677 677 677 677 678 678 678 678 679 679 679 679 680 680 680 680 681 681 681 681 682 682 682 682 683 683 683 683 684 684 684 684 685 685 685 685 686 686 686 686 687 687 687 687 688 688 688 688 689 689 689 689 690 690 690 690 691 691 691 691 692 692 692 692 693 693 693 693 694 694 694 694 695 695 695 695 696 696 696 696 697 697 697 697 698 698 698 698 699 699 699 699 700 700 700 700 701 701 701 701 702 702 702 702 703 703 703 703 704 704 704 704 705 705 705 705 706 706 706 706 707 707 707 707 708 708 708 708 709 709 709 709 710 710 710 710 711 711 711 711 712 712 712 712 -1 -1 -1 -1 713 713 713 713 714 714 714 714 -1 -1 -1 -1 715 715 715 715 716 716 716 716 717 717 717 717 718 718 718 718 719 719 719 719 720 720 720 720 721 721 721 721 722 722 722 722 723 723 723 723 724 724 724 724 725 725 725 725 726 726 726 726 727 727 727 727 728 728 728 728 729 729 729 729 730 730 730 730 731 731 731 731 732 732 732 732 733 733 733 733 734 734 734 734 735 735 735 735 736 736 736 736 737 737 737 737 738 738 738 738 739 739 739 739 740 740 740 740 -1 -1 -1 -1 741 741 741 741 742 742 742 742 743 743 743 743 744 744 744 744 745 745 745 745 746 746 746 746 747 747 747 747 748 748 748 748 749 749 749 749 750 750 750 750 751 751 751 751 752 752 752 752 753 753 753 753 754 754 754 754 755 755 755 755 756 756 756 756 757 757 757 757 758 758 758 758 759 759 759 759 760 760 760 760 761 761 761 761 762 762 762 762 763 763 763 763 764 764 764 764 -1 -1 -1 -1 765 765 765 765 766 766 766 766 767 767 767 767 768 768 768 768 769 769 769 769 770 770 770 770 771 771 771 771 772 772 772 772 773 773 773 773 774 774 774 774 775 775 775 775 776 776 776 776 777 777 777 777 778 778 778 778 779 779 779 779 780 780 780 780 781 781 781 781 782 782 782 782 783 783 783 783 784 784 784 784 785 785 785 785 786 786 786 786 787 787 787 787 788 788 788 788 789 789 789 789 790 790 790 790 791 791 791 791 792 792 792 792 793 793 793 793 794 794 794 794 795 795 795 795 796 796 796 796 797 797 797 797 798 798 798 798 799 799 799 799 800 800 800 800 801 801 801 801 802 802 802 802 803 803 803 803 804 804 804 804 805 805 805 805 806 806 806 806 807 807 807 807 808 808 808 808 809 809 809 809 810 810 810 810 811 811 811 811 812 812 812 812 813 813 813 813 814 814 814 814 815 815 815 815 816 816 816 816 817 817 817 817 818 818 818 818 819 819 819 819 820 820 820 820 821 821 821 821 822 822 822 822 823 823 823 823 824 824 824 824 825 825 825 825 826 826 826 826 -1 -1 -1 -1 827 827 827 827 828 828 828 828 -1 -1 -1 -1 -1 -1 -1 -1 829 829 829 829 830 830 830 830 831 831 831 831 -1 -1 -1 -1 832 832 832 832 -1 -1 -1 -1 -1 -1 -1 -1 833 833 833 833 834 834 834 834 835 835 835 835 -1 -1 -1 -1 836 836 836 836 837 837 837 837 838 838 838 838 -1 -1 -1 -1 839 839 839 839 -1 -1 -1 -1 -1 -1 -1 -1 -1 -1 -1 -1 -1 -1 -1 -1 -1 -1 -1 -1 -1 -1 -1 -1 -1 -1 -1 -1 -1 -1 -1 -1 840 840 840 840 -1 -1 -1 -1 841 841 841 841 842 842 842 842 843 843 843 843 844 844 844 844 845 845 845 845 -1 -1 -1 -1 846 846 846 846 847 847 847 847 848 848 848 848 849 849 849 849 850 850 850 850 851 851 851 851 852 852 852 852 -1 -1 -1 -1 -1 -1 -1 -1 -1 -1 -1 -1 -1 -1 -1 -1 -1 -1 -1 -1 -1 -1 -1 -1 -1 -1 -1 -1 -1 -1 -1 -1 -1 -1 -1 -1 -1 -1 -1 -1 -1 -1 -1 -1 853 853 853 853 854 854 854 854 855 855 855 855 856 856 856 856 857 857 857 857 858 858 858 858 859 859 859 859 860 860 860 860 861 861 861 861 862 862 862 862 863 863 863 863 864 864 864 864 865 865 865 865 866 866 866 866 867 867 867 867 868 868 868 868 869 869 869 869 870 870 870 870 871 871 871 871 872 872 872 872 873 873 873 873 874 874 874 874 875 875 875 875 876 876 876 876 877 877 877 877 878 878 878 878 879 879 879 879 880 880 880 880 881 881 881 881 882 882 882 882 883 883 883 883 884 884 884 884 -1 -1 -1 -1 -1 -1 -1 -1 885 885 885 885 886 886 886 886 887 887 887 887 888 888 888 888 889 889 889 889 890 890 890 890 891 891 891 891 892 892 892 892 893 893 893 893 894 894 894 894 895 895 895 895 896 896 896 896 897 897 897 897 898 898 898 898 899 899 899 899 900 900 900 900 -1 -1 -1 -1 -1 -1 -1 -1 901 901 901 901 902 902 902 902 903 903 903 903 904 904 904 904 905 905 905 905 906 906 906 906 907 907 907 907 908 908 908 908 909 909 909 909 910 910 910 910 -1 -1 -1 -1 -1 -1 -1 -1 911 911 911 911 912 912 912 912 -1 -1 -1 -1 -1 -1 -1 -1 913 913 913 913 914 914 914 914 915 915 915 915 -1 -1 -1 -1 916 916 916 916 -1 -1 -1 -1 -1 -1 -1 -1 -1 -1 -1 -1 -1 -1 -1 -1 917 917 917 917 918 918 918 918 919 919 919 919 920 920 920 920 921 921 921 921 922 922 922 922 923 923 923 923 924 924 924 924 925 925 925 925 926 926 926 926 927 927 927 927 928 928 928 928 929 929 929 929 930 930 930 930 931 931 931 931 932 932 932 932 933 933 933 933 934 934 934 934 935 935 935 935 936 936 936 936 937 937 937 937 938 938 938 938 939 939 939 939 940 940 940 940 941 941 941 941 942 942 942 942 943 943 943 943 944 944 944 944 945 945 945 945 946 946 946 946 947 947 947 947 948 948 948 948 949 949 949 949 950 950 950 950 -1 -1 -1 -1 -1 -1 -1 -1 951 951 951 951 952 952 952 952 953 953 953 953 954 954 954 954 955 955 955 955 956 956 956 956 957 957 957 957 958 958 958 958 959 959 959 959 960 960 960 960 961 961 961 961 962 962 962 962 963 963 963 963 964 964 964 964 965 965 965 965 966 966 966 966 967 967 967 967 968 968 968 968 969 969 969 969 970 970 970 970 971 971 971 971 972 972 972 972 973 973 973 973 974 974 974 974 975 975 975 975 976 976 976 976 977 977 977 977 978 978 978 978 979 979 979 979 980 980 980 980 981 981 981 981 982 982 982 982 983 983 983 983 984 984 984 984 985 985 985 985 986 986 986 986 987 987 987 987 988 988 988 988 989 989 989 989 990 990 990 990 -1 -1 -1 -1 -1 -1 -1 -1 -1 -1 -1 -1 -1 -1 -1 -1 991 991 991 991 992 992 992 992 993 993 993 993 994 994 994 994 995 995 995 995 996 996 996 996 997 997 997 997 998 998 998 998 999 999 999 999 1000 1000 1000 1000 1001 1001 1001 1001 1002 1002 1002 1002 1003 1003 1003 1003 1004 1004 1004 1004 1005 1005 1005 1005 1006 1006 1006 1006 1007 1007 1007 1007 1008 1008 1008 1008 -1 -1 -1 -1 -1 -1 -1 -1 -1 -1 -1 -1 -1 -1 -1 -1 1009 1009 1009 1009 1010 1010 1010 1010 1011 1011 1011 1011 1012 1012 1012 1012 1013 1013 1013 1013 1014 1014 1014 1014 1015 1015 1015 1015 1016 1016 1016 1016 1017 1017 1017 1017 1018 1018 1018 1018 1019 1019 1019 1019 1020 1020 1020 1020 1021 1021 1021 1021 1022 1022 1022 1022 1023 1023 1023 1023 1024 1024 1024 1024 1025 1025 1025 1025 1026 1026 1026 1026 1027 1027 1027 1027 1028 1028 1028 1028 1029 1029 1029 1029 1030 1030 1030 1030 1031 1031 1031 1031 1032 1032 1032 1032 1033 1033 1033 1033 1034 1034 1034 1034 1035 1035 1035 1035 1036 1036 1036 1036 1037 1037 1037 1037 1038 1038 1038 1038 1039 1039 1039 1039 1040 1040 1040 1040 1041 1041 1041 1041 1042 1042 1042 1042 1043 1043 1043 1043 1044 1044 1044 1044 1045 1045 1045 1045 1046 1046 1046 1046 1047 1047 1047 1047 1048 1048 1048 1048 1049 1049 1049 1049 1050 1050 1050 1050 1051 1051 1051 1051 1052 1052 1052 1052 1053 1053 1053 1053 1054 1054 1054 1054 1055 1055 1055 1055 1056 1056 1056 1056 1057 1057 1057 1057 1058 1058 1058 1058 -1 -1 -1 -1 -1 -1 -1 -1 1059 1059 1059 1059 1060 1060 1060 1060 1061 1061 1061 1061 1062 1062 1062 1062 1063 1063 1063 1063 1064 1064 1064 1064 1065 1065 1065 1065 1066 1066 1066 1066 1067 1067 1067 1067 1068 1068 1068 1068 1069 1069 1069 1069 1070 1070 1070 1070 1071 1071 1071 1071 1072 1072 1072 1072 1073 1073 1073 1073 1074 1074 1074 1074 1075 1075 1075 1075 1076 1076 1076 1076 1077 1077 1077 1077 1078 1078 1078 1078 1079 1079 1079 1079 1080 1080 1080 1080 1081 1081 1081 1081 1082 1082 1082 1082 -1 -1 -1 -1 -1 -1 -1 -1 1083 1083 1083 1083 -1 -1 -1 -1 1084 1084 1084 1084 1085 1085 1085 1085 1086 1086 1086 1086 1087 1087 1087 1087 -1 -1 -1 -1 -1 -1 -1 -1 1088 1088 1088 1088 1089 1089 1089 1089 1090 1090 1090 1090 1091 1091 1091 1091 1092 1092 1092 1092 1093 1093 1093 1093 1094 1094 1094 1094 1095 1095 1095 1095 1096 1096 1096 1096 1097 1097 1097 1097 1098 1098 1098 1098 1099 1099 1099 1099 1100 1100 1100 1100 1101 1101 1101 1101 1102 1102 1102 1102 1103 1103 1103 1103 1104 1104 1104 1104 1105 1105 1105 1105 1106 1106 1106 1106 1107 1107 1107 1107 1108 1108 1108 1108 1109 1109 1109 1109 1110 1110 1110 1110 1111 1111 1111 1111 1112 1112 1112 1112 1113 1113 1113 1113 1114 1114 1114 1114 1115 1115 1115 1115 1116 1116 1116 1116 1117 1117 1117 1117 1118 1118 1118 1118 1119 1119 1119 1119 1120 1120 1120 1120 1121 1121 1121 1121 1122 1122 1122 1122 1123 1123 1123 1123 1124 1124 1124 1124 1125 1125 1125 1125 1126 1126 1126 1126 1127 1127 1127 1127 1128 1128 1128 1128 1129 1129 1129 1129 1130 1130 1130 1130 1131 1131 1131 1131 1132 1132 1132 1132 1133 1133 1133 1133 1134 1134 1134 1134 1135 1135 1135 1135 1136 1136 1136 1136 1137 1137 1137 1137 1138 1138 1138 1138 -1 -1 -1 -1 1139 1139 1139 1139 1140 1140 1140 1140 1141 1141 1141 1141 1142 1142 1142 1142 1143 1143 1143 1143 1144 1144 1144 1144 1145 1145 1145 1145 1146 1146 1146 1146 1147 1147 1147 1147 1148 1148 1148 1148 -1 -1 -1 -1 1149 1149 1149 1149 1150 1150 1150 1150 1151 1151 1151 1151 1152 1152 1152 1152 1153 1153 1153 1153 1154 1154 1154 1154 1155 1155 1155 1155 1156 1156 1156 1156 1157 1157 1157 1157 1158 1158 1158 1158 1159 1159 1159 1159 1160 1160 1160 1160 1161 1161 1161 1161 1162 1162 1162 1162 1163 1163 1163 1163 -1 -1 -1 -1 -1 -1 -1 -1 -1 -1 -1 -1 -1 -1 -1 -1 1164 1164 1164 1164 1165 1165 1165 1165 1166 1166 1166 1166 1167 1167 1167 1167 -1 -1 -1 -1 -1 -1 -1 -1 1168 1168 1168 1168 1169 1169 1169 1